 Gaussian 16, Revision A.03,
 Gaussian 16:  ES64L-G16RevA.03 25-Dec-2016

 -------------------------
 # opt freq b3lyp 6-31g(d)
 -------------------------

 ------------
 CO2_Opt_Freq
 ------------
 Symbolic Z-matrix:
 Charge =  0 Multiplicity = 1

 SCF Done:  E(RB3LYP) =  -188.463164548     A.U. after   15 cycles
 SCF Done:  E(RB3LYP) =  -188.521599253     A.U. after   13 cycles
 SCF Done:  E(RB3LYP) =  -188.555471530     A.U. after   13 cycles
 SCF Done:  E(RB3LYP) =  -188.580593602     A.U. after   13 cycles
 SCF Done:  E(RB3LYP) =  -188.580893142     A.U. after   10 cycles
 SCF Done:  E(RB3LYP) =  -188.580934279     A.U. after    9 cycles
 SCF Done:  E(RB3LYP) =  -188.580939440     A.U. after    8 cycles
 Optimization completed.
    -- Stationary point found.
 Normal termination of Gaussian 16 at Wed Feb 28 15:37:06 2024.

 --------------------------------------------------------------------
 #N Geom=AllCheck Guess=TCheck SCRF=Check GenChk RB3LYP/6-31G(d) Freq
 --------------------------------------------------------------------

 Structure from the checkpoint file:  "CO2_Opt_Freq.chk"
 ------------
 CO2_Opt_Freq
 ------------
 Charge =  0 Multiplicity = 1

                         Standard orientation:
 ---------------------------------------------------------------------
 Center     Atomic      Atomic             Coordinates (Angstroms)
 Number     Number       Type             X           Y           Z
 ---------------------------------------------------------------------
      1          6           0       -0.000001    0.000060   -0.000179
      2          8           0        0.292610   -1.078569   -0.343575
      3          8           0       -0.292609    1.078525    0.343709
 ---------------------------------------------------------------------

 SCF Done:  E(RB3LYP) =  -188.580939440     A.U. after    1 cycles

 The electronic state is 1-A.
 Alpha  occ. eigenvalues --  -19.23660 -19.23659 -10.38530  -1.16097  -1.11963
 Alpha  occ. eigenvalues --   -0.56234  -0.51655  -0.51276  -0.51276  -0.36997
 Alpha  occ. eigenvalues --   -0.36997
 Alpha virt. eigenvalues --    0.02990   0.02990   0.08433   0.36575   0.47261
 Alpha virt. eigenvalues --    0.47261   0.58434   0.73523   0.78154   0.87419
 Alpha virt. eigenvalues --    0.87419   1.03771   1.04165   1.04165   1.37742

 Mulliken charges:
               1
     1  C    0.719478
     2  O   -0.359743
     3  O   -0.359736
 Sum of Mulliken charges =   0.00000

 Dipole moment (field-independent basis, Debye):
    X=             -0.0000    Y=              0.0002    Z=             -0.0006  Tot=              0.0007
 Quadrupole moment (field-independent basis, Debye-Ang):
   XX=            -14.7305   YY=            -18.2493   ZZ=            -14.8365
   XY=              1.0305   XZ=              0.3283   YZ=             -1.2102

  Exact polarizability:   8.590  -3.322  19.932  -1.058   3.901   8.932
 Approx polarizability:  12.224  -8.512  41.288  -2.712   9.996  13.100

                      1                      2                      3
                      A                      A                      A
 Frequencies --    640.0799              1371.9359              2436.1161
 Red. masses --     12.8774                15.9949                12.8774
 Frc consts  --      3.1085                17.7378                45.0270
 IR Inten    --     30.7158                 0.0000               545.7916

 - Thermochemistry -
 -------------------
 Temperature   298.150 Kelvin.  Pressure   1.00000 Atm.
 Atom     1 has atomic number  6 and mass  12.00000

 Molecular mass:    43.98983 amu.
 Principal axes and moments of inertia in atomic units:
                           1         2         3
     Eigenvalues --     0.00000 156.16003 156.16003
           X           -0.25027  -0.00000   0.96818
           Y            0.92248  -0.30358   0.23846
           Z            0.29392   0.95281   0.07598
 This molecule is an asymmetric top.
 Rotational symmetry number  1.
 Rotational temperatures (Kelvin) ************     0.55465     0.55465
 Rotational constants (GHZ):      ************    11.55700    11.55700
 Zero-point vibrational energy      26605.7 (Joules/Mol)
                                    6.35892 (Kcal/Mol)
 Vibrational temperatures:    920.93  1973.91  3505.03
          (Kelvin)

 Zero-point correction=                           0.010134 (Hartree/Particle)
 Thermal correction to Energy=                    0.013114
 Thermal correction to Enthalpy=                  0.014058
 Thermal correction to Gibbs Free Energy=        -0.006147
 Sum of electronic and zero-point Energies=           -188.570806
 Sum of electronic and thermal Energies=              -188.567826
 Sum of electronic and thermal Enthalpies=            -188.566881
 Sum of electronic and thermal Free Energies=         -188.587087

                     E (Thermal)             CV                S
                      KCal/Mol        Cal/Mol-Kelvin    Cal/Mol-Kelvin
 Total                    8.229              7.028             42.526
 Electronic               0.000              0.000              0.000
 Translational            0.889              2.981             37.270
 Rotational               0.889              2.981              4.850
 Vibrational              6.452              1.067              0.406

 Optimization completed.
    -- Stationary point found.
 Normal termination of Gaussian 16 at Wed Feb 28 15:37:11 2024.
