 Gaussian 16, Revision A.03,
 Gaussian 16:  ES64L-G16RevA.03 25-Dec-2016

 -------------------------
 # opt freq b3lyp 6-31g(d)
 -------------------------

 -----------
 N2_Opt_Freq
 -----------
 Symbolic Z-matrix:
 Charge =  0 Multiplicity = 1

 SCF Done:  E(RB3LYP) =  -109.523591112     A.U. after    8 cycles
 SCF Done:  E(RB3LYP) =  -109.524124171     A.U. after    6 cycles
 SCF Done:  E(RB3LYP) =  -109.524128676     A.U. after    6 cycles
 Optimization completed.
    -- Stationary point found.
 Normal termination of Gaussian 16 at Wed Feb 28 15:13:44 2024.

 --------------------------------------------------------------------
 #N Geom=AllCheck Guess=TCheck SCRF=Check GenChk RB3LYP/6-31G(d) Freq
 --------------------------------------------------------------------

 Structure from the checkpoint file:  "N2_Opt_Freq.chk"
 -----------
 N2_Opt_Freq
 -----------
 Charge =  0 Multiplicity = 1

                         Standard orientation:
 ---------------------------------------------------------------------
 Center     Atomic      Atomic             Coordinates (Angstroms)
 Number     Number       Type             X           Y           Z
 ---------------------------------------------------------------------
      1          7           0        0.000000    0.000000    0.552749
      2          7           0        0.000000    0.000000   -0.552749
 ---------------------------------------------------------------------

 SCF Done:  E(RB3LYP) =  -109.524128676     A.U. after    1 cycles

 The electronic state is 1-SGG.
 Alpha  occ. eigenvalues --  -14.44676 -14.44512  -1.12383  -0.55342  -0.46240
 Alpha  occ. eigenvalues --   -0.46240  -0.42688
 Alpha virt. eigenvalues --   -0.02412  -0.02412   0.41366   0.59105   0.60590
 Alpha virt. eigenvalues --    0.60590   0.64005   0.75115   0.75115   0.78521
 Alpha virt. eigenvalues --    1.23891   1.44991   1.44991   1.54800   1.54800

 Mulliken charges:
               1
     1  N   -0.000000
     2  N   -0.000000
 Sum of Mulliken charges =  -0.00000

 Dipole moment (field-independent basis, Debye):
    X=              0.0000    Y=              0.0000    Z=              0.0000  Tot=              0.0000
 Quadrupole moment (field-independent basis, Debye-Ang):
   XX=            -10.0489   YY=            -10.0489   ZZ=            -11.6070
   XY=              0.0000   XZ=             -0.0000   YZ=             -0.0000

  Exact polarizability:   6.138   0.000   6.138   0.000   0.000  13.334
 Approx polarizability:   8.399  -0.000   8.399  -0.000  -0.000  27.340

                      1
                     SGG
 Frequencies --   2457.3283
 Red. masses --     14.0031
 Frc consts  --     49.8196
 IR Inten    --      0.0000

 - Thermochemistry -
 -------------------
 Temperature   298.150 Kelvin.  Pressure   1.00000 Atm.
 Atom     1 has atomic number  7 and mass  14.00307

 Molecular mass:    28.00615 amu.
 Principal axes and moments of inertia in atomic units:
                           1         2         3
     Eigenvalues --     0.00000  30.55673  30.55673
           X            0.00000  -0.00000   1.00000
           Y            0.00000   1.00000   0.00000
           Z            1.00000   0.00000   0.00000
 This molecule is a prolate symmetric top.
 Rotational symmetry number  2.
 Rotational temperature (Kelvin)      2.83453
 Rotational constant (GHZ):          59.061987
 Zero-point vibrational energy      14698.1 (Joules/Mol)
                                    3.51293 (Kcal/Mol)
 Vibrational temperatures:   3535.55
          (Kelvin)

 Zero-point correction=                           0.005598 (Hartree/Particle)
 Thermal correction to Energy=                    0.007959
 Thermal correction to Enthalpy=                  0.008903
 Thermal correction to Gibbs Free Energy=        -0.012851
 Sum of electronic and zero-point Energies=           -109.518530
 Sum of electronic and thermal Energies=              -109.516170
 Sum of electronic and thermal Enthalpies=            -109.515226
 Sum of electronic and thermal Free Energies=         -109.536980

                     E (Thermal)             CV                S
                      KCal/Mol        Cal/Mol-Kelvin    Cal/Mol-Kelvin
 Total                    4.994              4.970             45.786
 Electronic               0.000              0.000              0.000
 Translational            0.889              2.981             35.924
 Rotational               0.592              1.987              9.862
 Vibrational              3.513              0.002              0.000

 Optimization completed.
    -- Stationary point found.
 Normal termination of Gaussian 16 at Wed Feb 28 15:13:47 2024.
