 Gaussian 16, Revision A.03,
 Gaussian 16:  ES64L-G16RevA.03 25-Dec-2016

 -------------------------
 # opt freq b3lyp 6-31g(d)
 -------------------------

 -------------------
 cis-2-butene_JETWEI
 -------------------
 Symbolic Z-matrix:
 Charge =  0 Multiplicity = 1

 SCF Done:  E(RB3LYP) =  -156.570711587     A.U. after   23 cycles
 SCF Done:  E(RB3LYP) =  -156.629372703     A.U. after   18 cycles
 SCF Done:  E(RB3LYP) =  -156.722660122     A.U. after   18 cycles
 SCF Done:  E(RB3LYP) =  -156.743367084     A.U. after   16 cycles
 SCF Done:  E(RB3LYP) =  -156.844889952     A.U. after   16 cycles
 SCF Done:  E(RB3LYP) =  -156.894817243     A.U. after   15 cycles
 SCF Done:  E(RB3LYP) =  -156.927897432     A.U. after   15 cycles
 SCF Done:  E(RB3LYP) =  -156.989548230     A.U. after   13 cycles
 SCF Done:  E(RB3LYP) =  -157.109797473     A.U. after   14 cycles
 SCF Done:  E(RB3LYP) =  -157.163351352     A.U. after   13 cycles
 SCF Done:  E(RB3LYP) =  -157.224371765     A.U. after   11 cycles
 SCF Done:  E(RB3LYP) =  -157.224553233     A.U. after   10 cycles
 SCF Done:  E(RB3LYP) =  -157.224648451     A.U. after   10 cycles
 SCF Done:  E(RB3LYP) =  -157.224720886     A.U. after   10 cycles
 SCF Done:  E(RB3LYP) =  -157.224757866     A.U. after   10 cycles
 SCF Done:  E(RB3LYP) =  -157.224770247     A.U. after    9 cycles
 SCF Done:  E(RB3LYP) =  -157.224773346     A.U. after    8 cycles
 SCF Done:  E(RB3LYP) =  -157.224774110     A.U. after    7 cycles
 SCF Done:  E(RB3LYP) =  -157.224774207     A.U. after    7 cycles
 Optimization completed.
    -- Stationary point found.
 Normal termination of Gaussian 16 at Tue Mar 12 13:41:27 2024.

 --------------------------------------------------------------------
 #N Geom=AllCheck Guess=TCheck SCRF=Check GenChk RB3LYP/6-31G(d) Freq
 --------------------------------------------------------------------

 Structure from the checkpoint file:  "cis-2-butene_JETWEI.chk"
 -------------------
 cis-2-butene_JETWEI
 -------------------
 Charge =  0 Multiplicity = 1

                         Standard orientation:
 ---------------------------------------------------------------------
 Center     Atomic      Atomic             Coordinates (Angstroms)
 Number     Number       Type             X           Y           Z
 ---------------------------------------------------------------------
      1          6           0       -1.593818   -0.521619   -0.000005
      2          1           0       -2.251249   -0.504435    0.880034
      3          1           0       -2.251019   -0.504836   -0.880170
      4          1           0       -1.062013   -1.477111    0.000380
      5          6           0        1.593802   -0.521568    0.000009
      6          1           0        2.251660   -0.504072   -0.879696
      7          1           0        1.062261   -1.477141   -0.000973
      8          1           0        2.250599   -0.505087    0.880500
      9          6           0        0.669155    0.663748    0.000002
     10          6           0       -0.669205    0.663814   -0.000031
     11          1           0        1.169207    1.633139    0.000124
     12          1           0       -1.169058    1.633293   -0.000044
 ---------------------------------------------------------------------

 SCF Done:  E(RB3LYP) =  -157.224774207     A.U. after    1 cycles

 The electronic state is 1-A.
 Alpha  occ. eigenvalues --  -10.17844 -10.17761 -10.17699 -10.17698  -0.78839
 Alpha  occ. eigenvalues --   -0.71736  -0.64954  -0.52079  -0.47160  -0.41156
 Alpha  occ. eigenvalues --   -0.40731  -0.39675  -0.38062  -0.35765  -0.32707
 Alpha  occ. eigenvalues --   -0.23460
 Alpha virt. eigenvalues --    0.03685   0.10287   0.12005   0.14311   0.16859
 Alpha virt. eigenvalues --    0.17604   0.18995   0.19044   0.22343   0.22592
 Alpha virt. eigenvalues --    0.31678   0.46215   0.49388   0.51373   0.52175

 Mulliken charges:
               1
     1  C   -0.487598
     2  H    0.154091
     3  H    0.154106
     4  H    0.151847
     5  C   -0.487610
     6  H    0.154085
     7  H    0.151853
     8  H    0.154109
     9  C   -0.090762
    10  C   -0.090779
    11  H    0.118325
    12  H    0.118333
 Sum of Mulliken charges =  -0.00000

 Dipole moment (field-independent basis, Debye):
    X=              0.0001    Y=             -0.1786    Z=              0.0001  Tot=              0.1786
 Quadrupole moment (field-independent basis, Debye-Ang):
   XX=            -24.8133   YY=            -25.7570   ZZ=            -27.5724
   XY=             -0.0003   XZ=              0.0003   YZ=              0.0001

  Exact polarizability:  59.626  -0.000  40.116   0.001  -0.000  29.027
 Approx polarizability:  83.287  -0.002  52.311   0.001  -0.000  39.332

                      1                      2                      3
                      A                      A                      A
 Frequencies --    133.5654               154.9621               292.0697
 Red. masses --      1.0593                 1.0353                 2.6155
 Frc consts  --      0.0111                 0.0146                 0.1315
 IR Inten    --      0.8788                 0.0002                 0.0026

                      4                      5                      6
                      A                      A                      A
 Frequencies --    395.3222               571.9861               700.7660
 Red. masses --      2.3282                 2.2330                 1.1001
 Frc consts  --      0.2144                 0.4304                 0.3183
 IR Inten    --      0.0000                 6.8480                32.1072

                      7                      8                      9
                      A                      A                      A
 Frequencies --    876.7838               990.0329              1011.9536
 Red. masses --      2.5467                 1.9360                 1.1204
 Frc consts  --      1.1535                 1.1180                 0.6760
 IR Inten    --      0.4101                13.4806                 0.0000

                     10                     11                     12
                      A                      A                      A
 Frequencies --   1036.1429              1070.5740              1080.7054
 Red. masses --      1.4237                 1.5841                 1.4316
 Frc consts  --      0.9005                 1.0697                 0.9851
 IR Inten    --      0.8438                 0.0000                 0.9544

                     13                     14                     15
                      A                      A                      A
 Frequencies --   1171.7431              1306.7208              1414.3455
 Red. masses --      2.0361                 1.1389                 1.2101
 Frc consts  --      1.6470                 1.1458                 1.4262
 IR Inten    --      1.2047                 0.0374                 5.0579

                     16                     17                     18
                      A                      A                      A
 Frequencies --   1448.0390              1460.8491              1512.3247
 Red. masses --      1.2199                 1.4414                 1.0448
 Frc consts  --      1.5071                 1.8124                 1.4079
 IR Inten    --      2.5915                 6.4959                 0.0001

                     19                     20                     21
                      A                      A                      A
 Frequencies --   1515.9623              1519.3194              1526.8040
 Red. masses --      1.0439                 1.0572                 1.0749
 Frc consts  --      1.4134                 1.4378                 1.4763
 IR Inten    --     10.0246                 2.4212                 4.8465

                     22                     23                     24
                      A                      A                      A
 Frequencies --   1754.9131              3031.6702              3034.3200
 Red. masses --      5.8313                 1.0395                 1.0410
 Frc consts  --     10.5810                 5.6292                 5.6472
 IR Inten    --      3.1074                50.1254                12.0291

                     25                     26                     27
                      A                      A                      A
 Frequencies --   3074.3983              3075.0169              3120.6006
 Red. masses --      1.0999                 1.1000                 1.0921
 Frc consts  --      6.1251                 6.1282                 6.2663
 IR Inten    --      0.0901                55.6499                 3.1885

                     28                     29                     30
                      A                      A                      A
 Frequencies --   3135.7455              3137.4591              3158.2580
 Red. masses --      1.0940                 1.0893                 1.0950
 Frc consts  --      6.3377                 6.3177                 6.4350
 IR Inten    --      8.5614                22.8041                69.9747

 - Thermochemistry -
 -------------------
 Temperature   298.150 Kelvin.  Pressure   1.00000 Atm.
 Atom     1 has atomic number  6 and mass  12.00000

 Molecular mass:    56.06260 amu.
 Principal axes and moments of inertia in atomic units:
                           1         2         3
     Eigenvalues --   110.61861 358.15417 446.47113
           X            1.00000  -0.00000  -0.00000
           Y            0.00000   1.00000   0.00001
           Z            0.00000  -0.00001   1.00000
 This molecule is an asymmetric top.
 Rotational symmetry number  1.
 Rotational temperatures (Kelvin)      0.78300     0.24183     0.19400
 Rotational constants (GHZ):          16.31499     5.03901     4.04223
 Zero-point vibrational energy     285389.2 (Joules/Mol)
                                   68.20966 (Kcal/Mol)
 Warning -- explicit consideration of   5 degrees of freedom as
           vibrations may cause significant error
 Vibrational temperatures:    192.17   222.96   420.22   568.78   822.96
          (Kelvin)           1008.25  1261.50  1424.44  1455.98  1490.78
                             1540.32  1554.89  1685.88  1880.08  2034.93
                             2083.41  2101.84  2175.90  2181.13  2185.96
                             2196.73  2524.93  4361.90  4365.71  4423.37
                             4424.26  4489.85  4511.64  4514.10  4544.03

 Zero-point correction=                           0.108699 (Hartree/Particle)
 Thermal correction to Energy=                    0.114159
 Thermal correction to Enthalpy=                  0.115103
 Thermal correction to Gibbs Free Energy=         0.080963
 Sum of electronic and zero-point Energies=           -157.116075
 Sum of electronic and thermal Energies=              -157.110615
 Sum of electronic and thermal Enthalpies=            -157.109671
 Sum of electronic and thermal Free Energies=         -157.143811

                     E (Thermal)             CV                S
                      KCal/Mol        Cal/Mol-Kelvin    Cal/Mol-Kelvin
 Total                   71.636             18.051             71.854
 Electronic               0.000              0.000              0.000
 Translational            0.889              2.981             37.993
 Rotational               0.889              2.981             24.385
 Vibrational             69.858             12.090              9.476
 Vibration     1          0.613              1.920              2.894
 Vibration     2          0.620              1.897              2.610
 Vibration     3          0.687              1.689              1.462
 Vibration     4          0.762              1.480              0.980
 Vibration     5          0.928              1.092              0.500

 Optimization completed.
    -- Stationary point found.
 Normal termination of Gaussian 16 at Tue Mar 12 13:42:00 2024.
