 Gaussian 16, Revision A.03,
 Gaussian 16:  ES64L-G16RevA.03 25-Dec-2016

 -------------------------
 # opt freq b3lyp 6-31g(d)
 -------------------------

 ---------------------
 trans-2-butene_JETWEI
 ---------------------
 Symbolic Z-matrix:
 Charge =  0 Multiplicity = 1

 SCF Done:  E(RB3LYP) =  -156.753216037     A.U. after   17 cycles
 SCF Done:  E(RB3LYP) =  -156.836393681     A.U. after   15 cycles
 SCF Done:  E(RB3LYP) =  -156.976462278     A.U. after   14 cycles
 SCF Done:  E(RB3LYP) =  -157.025814643     A.U. after   15 cycles
 SCF Done:  E(RB3LYP) =  -157.110185076     A.U. after   13 cycles
 SCF Done:  E(RB3LYP) =  -157.193263326     A.U. after   12 cycles
 SCF Done:  E(RB3LYP) =  -157.199627558     A.U. after   13 cycles
 SCF Done:  E(RB3LYP) =  -157.217915358     A.U. after   11 cycles
 SCF Done:  E(RB3LYP) =  -157.203892842     A.U. after   12 cycles
 SCF Done:  E(RB3LYP) =  -157.220484568     A.U. after   12 cycles
 SCF Done:  E(RB3LYP) =  -157.226695933     A.U. after   10 cycles
 SCF Done:  E(RB3LYP) =  -157.225729812     A.U. after   10 cycles
 SCF Done:  E(RB3LYP) =  -157.226735716     A.U. after   10 cycles
 SCF Done:  E(RB3LYP) =  -157.226799361     A.U. after   10 cycles
 SCF Done:  E(RB3LYP) =  -157.226899922     A.U. after   10 cycles
 SCF Done:  E(RB3LYP) =  -157.226905834     A.U. after    8 cycles
 SCF Done:  E(RB3LYP) =  -157.226909239     A.U. after    8 cycles
 SCF Done:  E(RB3LYP) =  -157.226909953     A.U. after    7 cycles
 SCF Done:  E(RB3LYP) =  -157.226910278     A.U. after    7 cycles
 Optimization completed.
    -- Stationary point found.
 Normal termination of Gaussian 16 at Tue Mar 12 13:20:24 2024.

 --------------------------------------------------------------------
 #N Geom=AllCheck Guess=TCheck SCRF=Check GenChk RB3LYP/6-31G(d) Freq
 --------------------------------------------------------------------

 Structure from the checkpoint file:  "trans-2-butene_JETWEI.chk"
 ---------------------
 trans-2-butene_JETWEI
 ---------------------
 Charge =  0 Multiplicity = 1

                         Standard orientation:
 ---------------------------------------------------------------------
 Center     Atomic      Atomic             Coordinates (Angstroms)
 Number     Number       Type             X           Y           Z
 ---------------------------------------------------------------------
      1          6           0       -0.538126   -0.395181    0.000091
      2          6           0        0.538148    0.395396    0.000050
      3          1           0        0.392529    1.477747    0.000093
      4          1           0       -0.392795   -1.477558    0.000107
      5          6           0       -1.963633    0.079170   -0.000055
      6          1           0       -2.508090   -0.289539    0.880165
      7          1           0       -2.023433    1.173049    0.000274
      8          1           0       -2.507690   -0.289093   -0.880693
      9          6           0        1.963638   -0.079287   -0.000036
     10          1           0        2.023042   -1.173180    0.000144
     11          1           0        2.508240    0.289179    0.880207
     12          1           0        2.508033    0.288807   -0.880598
 ---------------------------------------------------------------------

 SCF Done:  E(RB3LYP) =  -157.226910278     A.U. after    1 cycles

 The electronic state is 1-A.
 Alpha  occ. eigenvalues --  -10.17817 -10.17734 -10.17697 -10.17693  -0.78909
 Alpha  occ. eigenvalues --   -0.72168  -0.63722  -0.54070  -0.43724  -0.43489
 Alpha  occ. eigenvalues --   -0.41040  -0.39743  -0.36920  -0.35590  -0.33508
 Alpha  occ. eigenvalues --   -0.23499
 Alpha virt. eigenvalues --    0.03629   0.12126   0.12217   0.12652   0.17282
 Alpha virt. eigenvalues --    0.17643   0.18400   0.18610   0.18687   0.24716
 Alpha virt. eigenvalues --    0.30757   0.43277   0.50208   0.51434   0.53953

 Mulliken charges:
               1
     1  C   -0.084302
     2  C   -0.084309
     3  H    0.114745
     4  H    0.114741
     5  C   -0.485474
     6  H    0.152460
     7  H    0.150108
     8  H    0.152478
     9  C   -0.485489
    10  H    0.150123
    11  H    0.152460
    12  H    0.152459
 Sum of Mulliken charges =   0.00000

 Dipole moment (field-independent basis, Debye):
    X=             -0.0002    Y=             -0.0002    Z=             -0.0001  Tot=              0.0003
 Quadrupole moment (field-independent basis, Debye-Ang):
   XX=            -25.1531   YY=            -25.3517   ZZ=            -27.5808
   XY=              0.3349   XZ=              0.0000   YZ=              0.0002

  Exact polarizability:  59.899   5.259  41.469  -0.001   0.000  29.193
 Approx polarizability:  76.016  12.928  60.403  -0.002  -0.000  39.400

                      1                      2                      3
                      A                      A                      A
 Frequencies --    180.1179               233.4265               244.9993
 Red. masses --      1.0693                 1.2615                 2.1320
 Frc consts  --      0.0204                 0.0405                 0.0754
 IR Inten    --      1.1446                 0.0001                 2.8984

                      4                      5                      6
                      A                      A                      A
 Frequencies --    282.0299               501.7052               755.5930
 Red. masses --      2.3454                 2.7711                 1.3087
 Frc consts  --      0.1099                 0.4110                 0.4402
 IR Inten    --      1.0027                 0.0000                 0.0000

                      7                      8                      9
                      A                      A                      A
 Frequencies --    884.2554               998.7344              1011.2627
 Red. masses --      1.7505                 1.2372                 1.0542
 Frc consts  --      0.8064                 0.7271                 0.6352
 IR Inten    --      0.0000                14.3786                25.2242

                     10                     11                     12
                      A                      A                      A
 Frequencies --   1076.2012              1083.0058              1086.0726
 Red. masses --      1.5952                 1.4392                 3.3485
 Frc consts  --      1.0885                 0.9946                 2.3271
 IR Inten    --      0.0000                 0.1618                 1.3157

                     13                     14                     15
                      A                      A                      A
 Frequencies --   1179.3149              1345.4483              1346.1233
 Red. masses --      2.0080                 1.2841                 1.2600
 Frc consts  --      1.6454                 1.3696                 1.3452
 IR Inten    --      0.0000                 5.9711                 0.0029

                     16                     17                     18
                      A                      A                      A
 Frequencies --   1441.9187              1443.7786              1510.0874
 Red. masses --      1.2709                 1.2478                 1.0447
 Frc consts  --      1.5568                 1.5324                 1.4037
 IR Inten    --      2.5255                 0.0004                11.2312

                     19                     20                     21
                      A                      A                      A
 Frequencies --   1510.3349              1519.8072              1527.5781
 Red. masses --      1.0457                 1.0613                 1.0438
 Frc consts  --      1.4055                 1.4443                 1.4351
 IR Inten    --      0.0080                 0.0002                13.6333

                     22                     23                     24
                      A                      A                      A
 Frequencies --   1764.2370              3028.0974              3028.8384
 Red. masses --      5.5958                 1.0376                 1.0374
 Frc consts  --     10.2619                 5.6057                 5.6071
 IR Inten    --      0.0000                73.8253                 1.0809

                     25                     26                     27
                      A                      A                      A
 Frequencies --   3073.0898              3073.4753              3110.1357
 Red. masses --      1.1001                 1.1001                 1.0977
 Frc consts  --      6.1209                 6.1229                 6.2562
 IR Inten    --     48.7115                11.0600                18.9784

                     28                     29                     30
                      A                      A                      A
 Frequencies --   3112.0762              3131.2946              3138.9533
 Red. masses --      1.0979                 1.0933                 1.0879
 Frc consts  --      6.2648                 6.3160                 6.3153
 IR Inten    --      0.0001                 0.0032                85.3925

 - Thermochemistry -
 -------------------
 Temperature   298.150 Kelvin.  Pressure   1.00000 Atm.
 Atom     1 has atomic number  6 and mass  12.00000

 Molecular mass:    56.06260 amu.
 Principal axes and moments of inertia in atomic units:
                           1         2         3
     Eigenvalues --    51.90111 487.58871 517.17216
           X            0.99998  -0.00558  -0.00000
           Y            0.00558   0.99998   0.00001
           Z            0.00000  -0.00001   1.00000
 This molecule is an asymmetric top.
 Rotational symmetry number  1.
 Rotational temperatures (Kelvin)      1.66883     0.17764     0.16748
 Rotational constants (GHZ):          34.77269     3.70136     3.48963
 Zero-point vibrational energy     284842.8 (Joules/Mol)
                                   68.07906 (Kcal/Mol)
 Warning -- explicit consideration of   5 degrees of freedom as
           vibrations may cause significant error
 Vibrational temperatures:    259.15   335.85   352.50   405.78   721.84
          (Kelvin)           1087.13  1272.25  1436.96  1454.98  1548.41
                             1558.20  1562.62  1696.77  1935.80  1936.77
                             2074.60  2077.28  2172.68  2173.04  2186.66
                             2197.84  2538.34  4356.76  4357.82  4421.49
                             4422.05  4474.79  4477.58  4505.23  4516.25

 Zero-point correction=                           0.108491 (Hartree/Particle)
 Thermal correction to Energy=                    0.113957
 Thermal correction to Enthalpy=                  0.114901
 Thermal correction to Gibbs Free Energy=         0.081097
 Sum of electronic and zero-point Energies=           -157.118419
 Sum of electronic and thermal Energies=              -157.112953
 Sum of electronic and thermal Enthalpies=            -157.112009
 Sum of electronic and thermal Free Energies=         -157.145813

                     E (Thermal)             CV                S
                      KCal/Mol        Cal/Mol-Kelvin    Cal/Mol-Kelvin
 Total                   71.509             18.191             71.147
 Electronic               0.000              0.000              0.000
 Translational            0.889              2.981             37.993
 Rotational               0.889              2.981             24.085
 Vibrational             69.732             12.229              9.069
 Vibration     1          0.629              1.867              2.327
 Vibration     2          0.654              1.790              1.852
 Vibration     3          0.660              1.771              1.766
 Vibration     4          0.681              1.707              1.521
 Vibration     5          0.857              1.246              0.654

 Optimization completed.
    -- Stationary point found.
 Normal termination of Gaussian 16 at Tue Mar 12 13:20:56 2024.
